1435
Properties=species:S:1:pos:R:3 i=13418 time=6709.0 E=-12099.8266880192 pbc="F F F"
Ti      19.21354333      16.30743744       5.86834527
Ti      22.24313731      17.44690037       3.71546994
Ti       1.26540396      18.52685359       1.70451145
Ti      17.49544271      19.60781189       4.88491489
Ti      20.53721893      20.71238478       2.68535953
Ti      23.62057499      21.79861239       0.76931359
Ti      15.51936507      22.87075441       3.70484934
Ti      18.66534010      23.83999218       1.64883983
Ti      21.82909272       0.91097023      23.99554741
Ti      23.48448948      17.58392564       8.83356058
Ti       2.29160102      18.59202640       6.71220770
Ti      15.09516832      15.46164229       2.62818758
Ti      21.78999165      20.70094127       8.10722601
Ti      17.97927056      16.36626909       0.44550480
Ti       0.67126329      21.80339155       5.98934142
Ti      21.40164920      17.47196639      22.60667078
Ti       0.01083832      18.70218679      20.83483761
Ti      13.24714337      18.58349441       1.62173366
Ti      19.96695830      24.06500122       7.05805947
Ti      16.11196107      19.59722020      23.77320411
Ti      22.82448333       0.99825850       4.84015520
Ti      19.45470717      20.63390490      21.73344826
Ti      22.53601363      21.85937123      19.83214562
Ti      18.09551200       2.73741315       5.70302210
Ti      21.02795646       4.11424023       3.86015385
Ti      16.76956813      14.87581894       5.03230274
Ti      19.74624334      15.88447373       2.75978939
Ti      22.94029648      17.00183447       0.80885076
Ti       1.81193012      18.11521652      23.15025114
Ti      15.13901111      18.17961264       4.05037358
Ti      21.98350475      23.36767807       9.06893981
Ti      18.13960121      19.10983010       1.83894789
Ti       0.26046732      24.47986305       7.04316004
Ti      21.17391243      20.13526390      24.22919090
Ti       0.14260759      21.41987261      22.31522198
Ti      13.27955655      21.25249290       2.85900339
Ti      16.30610221      22.21041830       0.75537036
Ti      19.47242017      23.24347492      23.06155152
Ti      22.48575491       0.17126497      21.25126378
Ti      21.21564084      16.00512843       8.05725824
Ti      24.10585130      16.81874201       5.81805282
Ti       3.02902116      17.98711282       4.01660471
Ti      19.47253635      19.23640909       7.17981558
Ti      22.34394388      20.30408059       5.16200267
Ti      18.81582047      16.11917762      21.98911701
Ti       1.13753132      21.27327333       3.17909544
Ti      17.75152150      22.34064597       6.10364767
Ti      20.63477583      23.46038139       4.07226267
Ti      17.18421828      19.09841772      20.91604970
Ti      23.62097983       0.17829831       2.19186734
Ti      15.79468628       1.18661260       5.04860074
Ti      18.52665310       2.16109360       2.79551167
Ti      21.67383676       3.40821915       1.03607260
O       18.38409748      15.30190220       4.24398109
O       21.59633700      16.41870882       2.06914515
O        0.43988331      17.62200235       0.07928700
O       16.63384774      18.69769989       3.15097343
O       23.42204511      24.16690196       8.51573828
O       19.74558020      19.82362168       1.13295412
O       22.92546818      20.97312824      23.35391557
O       14.88594112      21.94567268       2.14277844
O       17.96590112      22.93607034      -0.05423671
O       20.91617340       0.05610645      22.22313659
O       22.96579364      16.26083547       7.38220806
O        1.60462303      17.51685016       5.22395149
O       21.05947730      19.66904166       6.41985935
O       17.47346633      15.24540062      23.19048018
O       24.06376647      21.05770178       4.35406710
O       20.61363718      16.48594098      21.32235365
O       19.21534258      23.00307543       5.32513870
O       15.63010453      18.73400283      22.10372649
O       22.34586013      24.11363397       3.41955878
O       18.65557010      19.98946475      20.05145610
O       17.15789975       1.88811603       4.01576022
O       20.19287579       3.21118217       2.16356161
O       15.91172651      13.90071260       3.63618827
O       22.74788771      19.17793951       8.46623639
O       18.99229434      14.87484212       1.40463733
O        1.62863913      20.24135970       6.54715612
O       22.59441604      15.86540332      23.78266244
O        1.11354053      17.38400493      21.28594456
O       14.12098168      17.08258825       2.55374122
O       21.13848738      22.61591767       7.48193640
O       17.26476112      18.18785905       0.20565612
O       23.88665063      23.48047624       5.67246254
O       20.37153429      19.11482475      22.60132460
O       23.96396276      20.58543948      20.32116533
O       12.34758570      20.30001270       1.50492804
O       19.14111902       1.49180208       6.45456938
O       15.45136608      21.40424696      23.54974591
O       21.95503919       2.59302765       4.43534806
O       18.83792781      22.33900965      21.47480783
O       21.92953181      23.73682695      19.54235081
O       20.42128980      15.09167735       6.67257731
O       23.21983833      15.92381525       4.52871345
O        2.28709034      17.12276902       2.52352916
O       18.44254669      18.11573119       5.74671754
O       21.59160069      19.30410906       3.56165703
O        0.43877446      20.29118448       1.56431337
O       16.64087514      21.30732948       4.62308345
O       19.75977550      22.45960260       2.42925458
O       22.84604292      23.67193226       0.55395014
O       14.74525538       0.24574905       3.67929601
O       17.87173718       1.35751840       1.43340774
O       21.09050102       2.66367226      23.72572025
O       21.91796852      16.87033738       9.63972179
O        0.76996651      17.71368401       7.61727374
O        3.90066377      18.69436257       5.57919489
O       20.10744770      20.11266011       8.72181640
O       16.46227878      15.81788964       1.44591391
O       23.14834535      21.08845091       6.67387185
O       19.54031574      16.72992842      23.55939511
O        1.89849652      22.21000534       4.61918199
O       22.77656246      18.13210923      21.57137682
O       18.28730978      23.05855028       7.71671557
O       14.60628765      19.09239209       0.51534798
O       21.19019267      24.47749093       5.60079229
O       17.82448545      20.01835294      22.44747565
O        0.04101408       1.32033096       3.43539248
O       21.11653180      21.06301442      20.51104020
O       16.31292762       2.34291688       6.45384103
O       19.16785965       3.56854595       4.39471063
O       22.22317714       4.59776978       2.58681274
O       17.66206091      15.56435680       6.65804763
O       20.53114309      16.79562729       4.49573349
O       23.85993878      17.69852465       2.49065785
O        2.61291620      18.71536322       0.34256782
O       15.68839715      18.99379510       5.57159858
O       18.90444637      19.84223195       3.52612484
O       21.92984894      21.12346606       1.41847189
O        0.83675155      22.26901951      23.71581911
O       13.90893642      22.04745774       4.42286557
O       16.90840697      23.29177960       2.39307272
O       20.05323993       0.09604519       0.30881703
O       23.24844285       0.94241008      22.71895383
O       15.75999958      16.29290155       4.45868821
O       22.48191756      21.68505518       9.62326627
O       18.77648623      17.28716787       2.14597120
O        1.42379784      23.02681859       7.32482603
O       21.94156086      18.27137042       0.06375620
O        1.01010886      19.62040948      22.35242646
O       13.84864860      19.53530988       3.32230630
O       20.52662954       0.36198850       8.67618752
O       17.14906651      20.63686644       1.11899157
O       23.75651797       1.74317130       6.28406695
O       20.17779562      21.60447068      23.44608741
O       23.29676706      22.75931525      21.37450598
O       19.87474013      17.31132770       7.65489170
O       23.09676644      18.29611164       5.28645456
O        2.18062918      19.56633545       3.21173816
O       18.33955348      20.52737603       6.42476164
O       21.29508056      21.61082289       4.28249451
O       17.87406666      17.39578277      21.07558766
O        0.14430826      22.74899856       2.28802637
O       16.44216916      23.77112609       5.48081375
O       19.53008778       0.65609128       3.08109893
O       22.58784975       1.74654902       1.25078749
O        1.30755962       1.74764117      11.61882894
H        1.47741373       1.37231457      12.56642310
H        2.22799252       1.69581414      11.27454454
O       11.73843544       0.50736847      11.08643404
H       12.27543801       0.51024871      11.93039184
H       12.24597338       0.09859175      10.30407653
O        0.16781434       4.24517134       8.28887773
H        0.44722021       3.40953827       8.76580194
H       -0.57723104       4.63574558       8.77238348
O       -1.02920231       8.59796600      21.88032419
H       -0.08259630       8.87655911      21.83645876
H       -1.45391406       8.76634275      21.06712332
O       23.58923427      10.25401735       4.80553135
H       22.61402069      10.01449122       5.04709497
H       23.55760221      11.18779309       4.49262344
O       12.66008195       8.26710751      23.11908588
H       13.62258367       8.25679096      23.35377016
H       12.17221755       8.03329162      23.97777509
O        4.08048846      16.05842667       4.19365893
H        3.68388304      15.33406396       3.64132557
H        4.69279072      15.67612092       4.85730001
O       15.99707550       7.71288972      18.30283533
H       15.81564120       7.25592389      17.40210566
H       16.98602138       7.60221730      18.36796226
O       12.97923394       6.58697780       9.17906899
H       13.61883947       5.82152756       9.11583601
H       12.07874162       6.22014787       9.00834397
O       14.11198646      14.93338298      12.54911764
H       13.34939004      15.13610097      11.94268080
H       13.87738068      15.10780841      13.53365441
O       12.72997529       5.02066599       6.47747803
H       13.65035290       4.79271137       6.74893371
H       12.05369118       4.56592176       7.01792483
O       10.96102486       8.96552311       7.33054289
H       10.66520766       8.36497941       8.02610772
H       11.77963794       8.52651040       7.01775581
O        2.88608666      16.04187313      23.53095516
H        2.11121991      15.37075725      23.64479122
H        3.15605712      15.94585855      22.63631596
O       18.84676688       7.69258883      18.54336276
H       19.29895593       8.42840773      19.05629504
H       18.92680608       6.96239530      19.17062240
O        5.81425334      15.51186491       9.82733764
H        6.08382948      16.27196439       9.25758547
H        5.58320652      16.03445322      10.67667259
O        3.07591527       7.12543162      23.68118933
H        2.93713288       7.17405421      24.68356866
H        3.42983208       6.17945963      23.57436299
O       15.88600303       1.32246693      14.66618380
H       15.10734110       1.84251334      14.92233912
H       15.88824016       0.92989782      13.72360490
O        0.30437349      10.05498614      12.35069968
H        1.25652990       9.87908977      12.19659538
H        0.17661511       9.87138024      13.32769556
O       10.10100361      12.28343215      10.84886196
H        9.61001262      11.92013825      11.56784862
H        9.49252203      13.07605579      10.65006812
O       18.18593540       4.20387935       7.12623163
H       17.68350186       3.96293080       8.04832666
H       18.59901411       5.16976364       7.13953127
O        1.18004806       8.73466609       9.37543181
H        1.75628917       8.99829373      10.13167956
H        1.63104163       7.92974660       8.95525525
O        7.67810325      23.53783884      13.25896299
H        6.73850200      23.21382245      13.10719778
H        7.98847700      23.65902693      12.30828013
O        6.69134444       5.30020898      23.80626181
H        6.49474928       5.95552282      24.58824302
H        6.16118216       4.47752505      24.02318241
O        1.09000689      14.76822414       6.25466397
H        1.99311609      15.12648259       6.47670452
H        0.83195425      14.25969430       7.07206086
O       22.12695371      10.17335398      14.24590771
H       22.15565381      10.18133893      13.22240412
H       21.27999740      10.64490166      14.51560303
O        1.62257265       9.34284670      22.13325683
H        2.33458360       9.28618955      21.43149234
H        1.91080386       8.75875623      22.85816383
O        7.16929586       8.93623386       6.70046460
H        7.60149547       9.75738085       7.13452532
H        7.77620109       8.90591973       5.83729694
O       11.05711641      15.19078345      16.59186805
H       11.96431201      15.09164458      16.33481069
H       10.69114386      14.30486552      16.77251070
O       23.45746036      12.95203031       4.34721215
H        0.00956115      13.21727403       4.81762882
H       22.82497738      13.08453410       5.11286504
O       11.20020960      17.79806269       2.20172282
H       10.85306816      18.26264864       2.98984482
H       10.86247427      16.86510788       2.41019193
O       14.90295935      14.32549984       6.37933218
H       14.92682634      13.32860488       6.35593846
H       14.86849622      14.49199086       7.35455289
O       14.11157210       3.65879146      15.87794094
H       13.92547091       3.01541768      16.63558424
H       13.34878711       3.57465772      15.26867047
O        8.39049991      21.11886663      11.01476496
H        8.83417157      21.96013755      11.22115495
H        7.39292709      21.27351567      11.27914437
O       20.97567765      14.10416448       3.29057279
H       21.90957358      14.44902947       3.26189417
H       20.85971715      13.67174932       4.14393263
O       11.86041295       2.16440707      23.75805429
H       12.23392123       1.78060263       0.28498357
H       11.85648622       1.32999458      23.19653845
O        3.30841461       3.26605329       1.96958138
H        2.33582577       3.56285787       2.22924230
H        3.18432635       2.66544608       1.25276190
O       10.78887405       9.05293693      11.49019158
H        9.96515218       9.57248270      11.28426323
H       11.55719507       9.22241745      10.95248914
O       12.23120350      18.74528519      13.44661167
H       12.01078245      19.69861327      13.60314166
H       12.25201863      18.79317886      12.46888400
O       21.16905815      13.89625165      23.97185668
H       20.28324339      14.33612492      -0.17695690
H       21.81589130      14.68502930      23.96967504
O        4.12001724      21.97362221      10.32374245
H        3.22395519      22.39938610      10.46279942
H        4.30050418      22.14907306       9.36688564
O        5.31029240       2.24315316       4.12017341
H        5.30587077       1.32019316       4.45313067
H        4.45667187       2.22682802       3.56188394
O        1.19873659       2.49064710      23.35495542
H        1.96238726       2.89029026      22.82034334
H        0.46743675       2.12804372      22.78377049
O        8.72510696       1.82656620      13.44913646
H        8.24723554       0.94439656      13.55280244
H        8.96040592       2.01973904      12.47963474
O       17.13848292       3.71399017       9.41075951
H       17.87662344       3.16072168       9.94335760
H       17.07180381       4.58485075       9.80101323
O       18.62555093       4.09934525      17.78320804
H       19.11177873       3.98593077      16.96886277
H       19.05588957       4.79470192      18.37278753
O        3.41711659       4.03477998      22.64079691
H        3.80211853       4.20169963      21.75660086
H        4.20748174       3.67322829      23.17740138
O       16.20265008      14.12128085      16.24780347
H       16.69066953      14.58957193      16.98570898
H       16.94895599      14.07815412      15.56735469
O        1.51883090      23.07625367      10.41313951
H        1.30226549      22.35781702       9.76461054
H       25.78958116      23.92192957       9.92852066
O        1.81859344       4.00509779       6.08066685
H        1.25192628       3.98561850       5.19374540
H        1.00127498       3.94768065       6.68868027
O        5.99136492       5.36061691      11.97314374
H        5.91012789       6.37222451      12.11155613
H        5.05398005       5.25774019      11.83632938
O       14.77070996       1.12156765      22.35090160
H       13.93356809       0.57117502      22.23380939
H       14.49981249       2.12397617      22.48553573
O       10.50672246       1.80515129      18.95789285
H       10.76393678       0.91801892      19.25910182
H       10.31746899       1.74116908      17.98306125
O       23.31215474       7.46552938       2.98765023
H       23.34134953       6.47948438       2.92138726
H       22.98872342       7.69267243       3.90623717
O        3.02392504      12.14461168       7.48095631
H        2.53650052      12.97483369       7.67064696
H        3.85897573      12.28039138       8.08196680
O        0.26679099      15.70894207      10.22950290
H       -0.26285919      15.00438186      10.55162793
H        0.77364313      15.89632803      11.02140305
O        0.25764506       4.91566907      17.83649657
H        0.40145755       5.88397220      17.73313258
H       23.57302784       4.85731749      17.68425960
O       19.32871447       2.30780634      10.31583881
H       19.54559638       1.54515313       9.77204162
H       19.19293692       2.00192415      11.26085078
O       19.52867044      10.99963596      15.00817522
H       19.49301978      11.09193541      16.01680825
H       19.15347978      11.85021666      14.65283526
O        5.11311052      17.01344019       0.63164825
H        5.76550879      16.22956141       0.58081654
H        4.22641485      16.68488876       0.40114417
O       15.54112055      10.54813930       8.62197177
H       15.42246600      10.57862089       9.67114278
H       15.55620893       9.54484483       8.41392394
O        9.48943980       8.83450882       5.21770026
H        9.99632954       9.36736640       4.54088971
H       10.15441803       8.74650728       5.97605314
O       13.47826576       4.60813270      19.74131923
H       14.06340103       4.01170374      19.23284792
H       12.55631345       4.19372040      19.78709476
O        8.16983050       7.38895430      22.45041380
H        9.09602188       7.13623933      22.00233370
H        7.60933863       6.63793851      22.52849287
O       21.65688574       7.27152462      14.81463113
H       21.60948907       8.24528142      14.55856720
H       20.76530546       7.17881569      15.17403318
O        2.75494823       9.28049171      11.76061321
H        2.94781725       8.35971735      12.06616834
H        3.59545821       9.72388750      11.48890034
O        3.12117104       7.08348759      14.01654604
H        2.24645839       6.87541818      13.64154579
H        3.62075537       6.27656760      14.23046488
O        6.51235974      11.69003420      21.86042372
H        7.49278766      11.63863262      21.96692827
H        6.27988158      11.11746182      21.11900462
O        2.81689582      13.95827716      21.20256741
H        2.63398984      14.56265850      20.37553709
H        1.87760561      13.62792393      21.36811494
O       24.26649340      18.21499254      10.83544626
H        0.37757123      19.10612953      10.67203958
H       24.91944895      17.75320412      11.38766741
O       22.00559138      14.00733013       8.48848994
H       21.59681068      13.28859277       9.02684298
H       23.01954328      13.76687561       8.48911651
O        5.88152800      19.38379324      18.83603087
H        5.16386251      18.92262027      18.33166231
H        6.70857850      18.89204553      18.60518714
O       12.10284636       7.81206407      16.64702428
H       11.99293964       7.63446589      17.59112423
H       11.19275546       7.95112087      16.20016985
O        7.24927076      17.29227302      15.69373833
H        8.00680700      17.00402191      15.16978027
H        6.55132448      16.61411811      15.77499612
O        5.32844918      14.13825554      22.13801963
H        5.72411039      13.24292457      21.99666679
H        4.32395157      14.12824937      22.13381158
O       25.47106587       3.57217773      20.02863702
H        2.17373180       3.48817452      19.97718630
H        1.03542460       3.95003120      19.15945307
O       19.09356247      22.22399078      10.16194436
H       19.69916475      21.55160484       9.75165030
H       18.82300248      22.82008850       9.45858943
O        4.51667345       5.03781216      20.18624407
H        4.18737914       5.93898745      20.21734482
H        4.62102770       4.73340949      19.23344455
O       13.48920931      17.27920589       5.70227529
H       12.62138978      16.86958074       5.38636574
H       14.08582700      16.50711859       5.89780057
O        5.33204999      22.22271734      12.58740386
H        4.88543442      22.17346050      11.60025183
H        5.57948738      21.22316556      12.84046874
O       13.43422871       1.65073546      18.27348608
H       12.48951814       1.71848726      18.40027560
H       13.56021132       0.66960928      18.21192567
O        9.28456340      22.91277366      15.59278316
H       10.07037626      22.25799677      15.61373768
H        8.88576247      22.93968910      14.69114962
O        4.09500954      13.23348854       5.15780846
H        3.78362306      12.64246074       4.40825649
H        3.72869587      12.96432325       6.01158776
O        7.85046661      19.95694959       4.22945538
H        7.31970876      20.01947475       3.42758516
H        7.25910134      19.55280096       4.95621915
O       12.93094763      23.25416527      14.77611751
H       13.54287510      -1.49453292      14.22098554
H       12.93320779      24.16782718      14.55810376
O       21.11268218       5.32312938      24.32936926
H       21.31417201       5.94770423       0.75845196
H       20.12262605       5.36182224      24.13121931
O       12.01856640      11.06403087      22.24567247
H       11.00150941      10.99699906      22.40213483
H       12.24697929      10.18098576      22.60341875
O        4.88951170      19.99361797      -0.11853145
H        3.94494579      19.84137332       0.02829390
H        5.40218897      19.19725507       0.17144540
O        9.38711681      16.07496482      23.44710726
H        9.41851445      16.04257770      24.46689030
H        9.41085525      17.06186593      23.26934165
O       12.29993212       7.36031817      19.25842737
H       11.50185432       7.35671649      19.83963116
H       12.65564291       6.42008475      19.29333438
O        5.23725348      20.74321048      16.48225917
H        4.95059661      21.51676233      15.92990874
H        6.10347300      20.30402542      16.21096945
O        2.56994154       9.23968400      15.48095321
H        2.87998266       8.39017799      14.97889026
H        2.98822441       9.09452214      16.35871645
O       13.04871207      14.63926424       3.76750364
H       12.91553069      13.72246715       3.92730190
H       12.20408816      15.00222672       3.44069307
O       12.99224323       9.25968696       9.61021521
H       13.17840006       8.37391347       9.21576270
H       13.37208827       9.90549411       9.02211751
O       21.77339530      11.65611973       1.18451719
H       21.64910341      12.58727718       0.88290327
H       21.45724832      11.64708949       2.11143030
O       10.30427917      14.99604644       2.30938285
H       10.57670729      14.24124096       1.72927825
H        9.61754577      14.57013471       2.90437022
O       12.07984328      18.87168069      10.74355172
H       12.32268594      19.69901670      10.29642096
H       12.76520284      18.24880399      10.30967517
O        2.08646150       3.78098454      16.12213843
H        1.97600595       3.70705593      15.12585484
H        1.40265556       4.40197791      16.44208840
O        5.33849730      12.83701679       8.96490767
H        5.50098351      13.71849996       9.37342391
H        6.27304811      12.50713839       8.69424177
O       21.92942941       4.44698931      16.75357436
H       21.44100665       5.16064868      16.40332729
H       21.76105770       3.78279910      16.05619444
O       17.80391309      12.85121994       5.56312968
H       18.74257114      13.03445583       5.85650332
H       17.40029179      12.26242368       6.21980450
O        6.92514103      21.03267013       8.48083944
H        7.52907880      21.20128963       9.25020090
H        6.92873072      21.74338536       7.84531436
O       12.75903171      12.21211452      11.75088347
H       11.91315155      12.46562606      11.31613238
H       13.08407924      13.03760420      12.22187474
O        7.00835716      18.36741126      10.17611738
H        6.60243645      19.03196013       9.63135991
H        7.81063918      18.66099944      10.65267042
O        3.45374873      16.37836766       7.47301492
H        3.64557521      16.04787383       8.36099816
H        4.27078727      16.30189791       7.00711379
O        6.78208557      13.68863531      11.97223025
H        5.80542601      13.33037961      12.12509681
H        7.29199147      13.07354085      12.59153770
O        8.99685556       0.86369991      22.89035211
H        8.82217684       1.79373083      22.86495707
H        9.70229197       0.70307986      22.23015412
O       12.77169518       6.56307632      13.97560708
H       12.56186936       7.07980041      14.76211168
H       11.88521678       6.56856074      13.54217366
O        1.06765513      13.49805026      18.75424455
H        0.75022320      12.59267458      19.17012441
H        0.28442811      14.06164180      18.80225432
O       19.42914217       8.18930039       9.65440105
H       19.64758253       7.53269447      10.31254278
H       19.23893385       9.09051857      10.03294223
O        2.41845209      22.57489715      16.56499474
H        1.62368255      23.16842069      16.69491451
H        1.96508382      21.93242706      15.92631092
O       20.20647266      14.11536699      18.95733152
H       20.98290969      14.69889735      18.80951250
H       19.49271308      14.64193332      18.40817501
O       14.81288168       4.86260078       0.82546596
H       14.93304016       5.85908740       0.95561490
H       14.70094595       4.48663928      24.19062501
O       10.32230320       6.36008470      12.75918197
H       10.37322464       6.79064380      11.84423817
H        9.37504595       6.48640056      13.07396265
O       22.41018846       4.46284744      21.48958391
H       23.22774466       5.02414824      21.51080617
H       22.33144300       4.24474631      22.45886321
O        8.00059746       3.29431887       3.30637101
H        7.30771790       2.66590731       3.03382188
H        8.68596557       3.22888710       2.60619731
O        1.06578526       0.52126856       0.85563150
H        0.99150840      24.20151972      24.35548147
H        1.21879835       1.36139909      24.67735314
O        1.39753983      15.97140992      16.72950801
H        1.10227536      15.13291836      16.37521475
H        1.37435721      15.81186054      17.68270405
O        3.43497625      19.21369819       8.52102716
H        3.50974576      18.82020682       9.45913400
H        3.59623446      20.14178757       8.67777497
O       11.28646061      21.17570316       4.23139091
H       10.77980775      20.31465226       4.45746762
H       11.76223951      21.51590571       5.01186059
O        6.11940492      23.91882270       4.69696269
H        6.58743322      23.75334522       5.61296969
H        5.42505875      23.22013423       4.66152184
O       16.01712400       8.14188466       5.53665265
H       16.33889047       8.82526026       4.91054227
H       16.20797780       7.20490689       5.19457953
O       15.34462316       4.82307439       7.15610266
H       15.99188708       5.15066105       6.48596459
H       15.61447306       3.84424319       7.11699609
O       10.22543057      18.82952852       4.58579152
H        9.20808077      18.90601150       4.33714466
H       10.30453979      18.66350351       5.55979530
O        5.33282318       9.15761995       3.33731885
H        5.60587105       8.78156887       2.47051316
H        6.13288333       9.02360276       3.89278144
O       10.02685541      22.00961541       1.07270671
H        9.20110661      21.55369201       0.94309257
H       10.70867960      21.34479863       1.42169387
O       24.44966671      22.66438842      12.67018260
H        0.49628386      22.98830626      11.84968275
H       23.68614815      23.16238109      12.96019185
O       10.72258992      16.47102225      19.49627201
H       10.65601611      15.91722408      18.68922934
H       10.24767987      15.82806993      20.14255252
O       13.77280050      15.43508726      15.68256618
H       13.84215065      16.36047790      15.36820266
H       14.68340079      15.12045139      16.08874496
O        6.33191778       7.81831679      13.10149625
H        5.72320984       8.47759365      13.48672483
H        6.88557323       7.52257988      13.84061735
O       13.13829652      11.87909691       4.32795316
H       13.60489192      11.71513608       5.15543955
H       13.76365098      11.73468427       3.53583071
O       18.79451809      13.80034956      14.78353762
H       18.33705376      14.43263128      14.16605786
H       19.56681455      14.34553616      15.15087929
O       16.37095634       7.92051526       8.37468242
H       17.29493046       7.97765695       8.70258063
H       16.46741637       7.73230520       7.40542339