1435
Properties=species:S:1:pos:R:3 i=23393 time=11696.5 E=-12100.0176768297 pbc="F F F"
Ti      19.33859905      16.59896229       5.96030172
Ti      22.33418037      17.62117856       3.67716692
Ti       1.17155078      18.56091659       1.74801874
Ti      17.55484671      19.82465361       4.79331473
Ti      20.60174047      20.85343934       2.73574142
Ti      23.54745565      21.86960923       0.65765397
Ti      15.84853689      23.02742379       3.79771668
Ti      18.86287709      23.97534875       1.64793292
Ti      21.86053440       0.89904044      23.89646409
Ti      23.70705884      17.78634065       9.09517455
Ti       2.24236515      18.90403598       6.83141950
Ti      15.10874397      15.34989901       2.64190745
Ti      21.95036584      20.87327381       8.20483228
Ti      17.99852022      16.23849723       0.53628485
Ti       0.87539161      22.06736416       5.95501354
Ti      21.15927771      17.41090724      22.51457786
Ti      -0.12194250      18.59562963      20.87627126
Ti      13.35213938      18.78957580       1.67716914
Ti      19.98115341      24.24994174       7.15837297
Ti      16.19398349      19.58182637      23.84337679
Ti      22.92009538       1.32610239       4.78403079
Ti      19.22219058      20.80275217      21.50391613
Ti      22.39480629      21.85601954      19.95572279
Ti      18.11565701       2.88188343       5.89269825
Ti      21.03997519       4.20330764       3.74225391
Ti      16.92245109      14.91103444       4.99727573
Ti      19.87755682      15.89760617       2.81865075
Ti      22.78318777      17.12830233       0.69416422
Ti       1.56106873      17.81903239      23.08989755
Ti      15.29531917      18.11550224       3.99169443
Ti      22.08298058      23.65299664       9.05747288
Ti      18.18000130      19.10720607       1.79292117
Ti       0.45339712      24.73984419       6.97467339
Ti      21.11919050      20.21156050      23.97914813
Ti       0.05559177      21.21616866      22.29825552
Ti      13.59487095      21.39357861       3.02662010
Ti      16.43604921      22.26864677       0.85460946
Ti      19.48592970      23.43382260      22.96207417
Ti      22.57463437       0.24384072      21.04952272
Ti      21.24716271      16.16324526       8.26937745
Ti      24.05310263      17.13422274       6.01873414
Ti       2.84142920      18.02126672       4.14024927
Ti      19.58707276      19.37668039       7.34041594
Ti      22.49973350      20.42414052       5.24760236
Ti      18.59252959      16.07936252      21.88476780
Ti       1.11603811      21.29503308       3.01444360
Ti      17.77969263      22.50457863       6.32399096
Ti      20.63544468      23.54776179       4.19462217
Ti      16.99671255      19.09441978      21.01416622
Ti      23.68919790       0.24717070       2.13434225
Ti      15.75427972       1.29731092       5.15745761
Ti      18.65585079       2.34548660       2.79906798
Ti      21.67116809       3.49574368       0.86288117
O       18.59985189      15.29794291       4.26699818
O       21.81064957      16.39177777       2.24018113
O        0.33275264      17.37694988       0.13068217
O       16.92802146      18.65702508       3.23580965
O       23.59246986      24.24480394       8.35951598
O       19.75521275      19.98203542       1.04155416
O       22.86302829      20.79427291      23.30602539
O       15.00715506      22.13814776       2.34068022
O       17.95400510      23.11039832       0.08474599
O       21.11395879      -0.03346230      22.17190468
O       23.03981080      16.60130607       7.53851407
O        1.49890898      17.81188766       5.42873444
O       21.04202810      20.05110425       6.50812554
O       17.53448437      15.32803619      23.19858503
O       24.23950562      20.94966744       4.42066426
O       20.41533166      16.40357188      21.19648213
O       19.21513625      23.23336456       5.39858460
O       15.50695557      18.92741884      22.22262115
O       22.23895394      24.26077972       3.34162874
O       18.42323947      20.08316128      19.98374245
O       17.21985550       2.09656872       4.28387820
O       20.22414063       3.38049399       2.08472571
O       15.97828349      13.89782336       3.63146364
O       22.99511285      19.35524509       8.60754730
O       19.11039112      14.85904264       1.50519730
O        1.63020233      20.52461553       6.91290578
O       22.12196147      16.11977724      23.61127469
O        0.94117360      17.02811764      21.35468493
O       14.05207656      17.00240687       2.42157468
O       21.21536130      22.75510305       7.73087495
O       17.29055643      18.24134531       0.38720626
O       24.13261510      23.71288001       5.59604609
O       20.29383452      19.26550957      22.43778269
O       23.69240570      20.44789177      20.40905545
O       12.56926583      20.50133762       1.66238141
O       19.02677847       1.62692461       6.74326779
O       15.50582396      21.60195290      23.70723066
O       22.10893971       2.98263635       4.51571722
O       18.54100246      22.59440321      21.44247662
O       22.01025702      23.78516956      19.42255877
O       20.30298039      15.25617555       6.87877887
O       23.42728326      16.17336844       4.65797167
O        2.06215116      17.06639065       2.72069348
O       18.72866315      18.48502044       5.80241919
O       21.67012163      19.40150482       3.45382087
O        0.39506619      20.35088829       1.57729348
O       16.79836433      21.53843884       4.67311866
O       19.93710996      22.69326736       2.55719502
O       22.92265354      23.70522168       0.42596482
O       14.90872087       0.42526623       3.71975294
O       17.87634896       1.59415507       1.39176409
O       21.08906247       2.62738426      23.55664820
O       22.19869083      16.98156596       9.87313724
O        1.04010183      17.92960639       7.96281884
O        3.77930507      18.83600072       5.66306265
O       20.27004273      20.14110014       8.97423017
O       16.34864675      15.76088984       1.41305877
O       23.25483483      21.30217736       6.77129664
O       19.36255326      16.83444388      23.47073236
O        2.16402677      22.22471368       4.54211746
O       22.71147935      17.95618442      21.63278295
O       18.30582367      23.39372107       7.81967191
O       14.64928666      19.04812036       0.40046666
O       21.26544151      24.68180935       5.64812804
O       17.82159695      19.83551203      22.50194652
O        0.03647343       1.35172828       3.50009268
O       20.77853670      21.23699021      20.37732183
O       16.32942688       2.59080700       6.56045413
O       19.23701741       3.65352804       4.42012468
O       22.37229368       4.57236266       2.53045782
O       17.66052993      15.93300388       6.62297418
O       20.63585604      16.78725057       4.52019333
O       23.75710258      17.94802562       2.38847846
O        2.46772039      18.61683710       0.30876274
O       15.90957876      18.91380857       5.52484749
O       18.81578914      20.23531854       3.39501634
O       21.94449360      21.05986352       1.42982685
O        0.82566934      22.07481356      23.76795317
O       14.08650949      22.22959254       4.53030209
O       17.20206368      23.27609524       2.51042792
O       20.17361827       0.07310184       0.30836947
O       23.32411490       1.03202367      22.65784120
O       15.93374747      16.37506229       4.27396644
O       22.55455526      21.84139339       9.72912566
O       18.97725196      17.32732201       2.09797338
O        1.64354733      23.30966934       7.25500806
O       21.88071750      18.49055085       0.14733281
O        0.99746148      19.48240112      22.31112811
O       14.04944760      19.58427551       3.33079931
O       20.66836214       0.60992928       8.80241866
O       17.10036729      20.54916279       1.14910393
O       23.79451823       2.01525258       6.21417579
O       20.14971853      21.78014723      23.21284542
O       23.45043986      22.83397362      21.34738130
O       20.28950411      17.61409059       7.50464966
O       23.11036901      18.63053822       5.36214378
O        2.16101053      19.50082776       3.19308008
O       18.09256397      20.81944348       6.72515539
O       21.51912330      21.80458812       4.37814865
O       17.50373524      17.29001737      21.00962117
O        0.17694159      22.84000135       2.26287818
O       16.37949562      23.88266165       5.63927993
O       19.60563990       0.78490192       3.13130604
O       22.62968058       1.89361125       1.12900501
O        0.47056009       2.53570661      13.39551902
H        0.22324062       2.21470236      12.47439074
H        1.01968944       1.88870956      13.83130876
O       11.80616515       0.50946069      11.43111873
H       11.84981924       0.66490254      12.39825256
H       12.57798062      -0.03865132      11.14840727
O        0.27286937       4.63496184       8.17292927
H        0.51100530       4.63134793       7.18670717
H       -0.60827409       4.89714964       8.46886884
O       -1.18278495       9.04671252      21.16393377
H       -0.44188083       8.38845976      21.30609833
H       -1.64343366       8.87429803      20.28430101
O       23.92207743      10.28693924       4.77602743
H       24.62633339       9.68613081       5.02567585
H       24.46229219      11.09032904       4.54182689
O       12.88105619       7.81599787      23.12539661
H       13.82764732       7.85363963      22.75303375
H       12.98515103       7.80765150      24.06346950
O        4.08652645      16.08378659       4.67087876
H        3.91805951      15.10726772       5.01574823
H        4.86804545      16.44999247       5.13356931
O       15.92878053       7.60196865      17.51381418
H       16.27568405       7.38299572      16.61086153
H       16.69653041       8.04792787      17.91315112
O       12.87919905       5.63179289       9.42567743
H       12.69721449       4.65487702       9.68539864
H       13.60504200       5.53975297       8.73425427
O       14.11738710      15.13644226      12.62300979
H       13.17492519      14.96385946      12.44878554
H       14.22055174      15.25931881      13.59733897
O       12.00518531       4.95619438       5.81292230
H       12.90440622       5.12647277       6.20116171
H       11.42709295       4.63380903       6.53516903
O       10.64136260       8.72716232       8.12339491
H       10.20997629       7.85199827       8.48583911
H       11.42593674       8.38502856       7.59123002
O        2.54568073      15.78687826      23.43749005
H        2.86956856      15.41310682      24.32833943
H        2.67235947      15.14930927      22.76485283
O       18.50757164       8.27994068      18.48630588
H       18.07296274       9.11700933      18.86540303
H       18.50680744       7.70066773      19.29310357
O        6.53859215      16.49054778       9.54276772
H        7.14130979      17.22697628       9.22363943
H        6.58442359      16.49648039      10.52978719
O        1.71263908       7.14605839      23.56803894
H        1.00394693       7.16820667      24.30692393
H        2.43581496       6.73027893      24.02602953
O       16.15230368       1.85041798      14.64539115
H       15.46167353       2.54628575      14.41159432
H       16.53137128       1.60053220      13.77550087
O        0.78224757      10.19716834      11.18101626
H        1.42353560       9.83850189      11.83353902
H       -0.11496489       9.80786114      11.40228750
O        9.29185666      11.53774508      11.18243598
H        8.58699909      10.81789699      11.22543297
H        8.76734716      12.32323614      11.60425874
O       18.19833067       4.65197469       7.07001114
H       17.76147662       4.39806878       7.94332637
H       18.75794071       5.40015038       7.28138822
O        1.17811485       8.83908163       8.85523655
H        1.30340077       9.20656305       9.79957228
H        2.04370682       8.43092168       8.64723229
O        8.06274769      23.01229430      12.84981252
H        7.10039996      22.79096128      12.63785479
H        8.45597633      23.45572538      12.01295483
O        6.15125426       5.59562967      23.33750158
H        5.76636837       6.55908908      23.42992886
H        5.79531221       5.20647586      24.18451131
O        1.31252632      15.37559807       6.82935249
H        1.85479904      14.69759443       6.40047697
H        0.92990263      15.07472944       7.71098182
O       21.94348873      10.35622365      13.77477091
H       21.40027135       9.53484078      13.76913607
H       21.34901778      10.83354166      14.41046182
O        1.75108206       9.59393115      22.39060049
H        2.50795693       9.83037010      21.81211943
H        1.79093615       8.62690290      22.59204703
O        6.70203819       8.94728051       6.47012943
H        6.69541312       9.79162353       7.03573593
H        7.40012908       9.15660679       5.81183678
O       11.17450287      14.87798931      16.59852007
H       12.07730603      15.14141525      16.31845228
H       11.29834683      13.98096675      16.97270019
O       23.77061002      13.13704890       4.78924641
H       -0.20530388      13.39763527       3.87396204
H       23.61879585      14.01761049       5.26044572
O       11.18260300      18.06762923       2.38775004
H       10.87808175      18.29798824       3.30514283
H       10.96511131      17.12212579       2.26591064
O       15.03837833      14.49129106       6.63262344
H       14.33454866      14.87613143       6.06534650
H       14.98394190      13.54381696       6.59881514
O       14.35075717       3.99385317      17.22412872
H       14.94067430       3.75428796      17.90004470
H       13.56725836       4.36105680      17.65281430
O        9.24553005      21.48031416      10.16466275
H        9.04545851      22.47845221      10.28621207
H        9.99661337      21.49911783       9.55361029
O       21.06593539      14.03502401       3.34078110
H       22.01673521      13.95609041       3.05437462
H       20.92188246      13.65326495       4.28349360
O       12.33228069       2.57305090      23.55151141
H       11.80541508       2.51239483       0.06077677
H       12.07385305       1.77744171      23.02062807
O        2.85358889       3.07429865       1.84062468
H        2.23497692       3.69696103       2.38513206
H        3.16734719       3.65504200       1.13591991
O        9.64802136       8.14395096      11.95080135
H        8.77751069       8.54007053      11.61685530
H       10.33278165       8.75205286      11.70808223
O       11.42920369      18.73586899      13.67059441
H       10.91127407      19.60152530      13.62307813
H       11.65810668      18.54542607      12.70958666
O       20.84739332      13.86070530      24.13920893
H       20.13206073      13.99914211       0.51170319
H       21.17775550      14.82618926      23.87252141
O        4.21420158      21.42177865       9.71445871
H        3.35444074      21.75505981      10.07923038
H        4.27491970      22.08687338       8.90907750
O        5.56936236       2.35465812       3.21030158
H        5.76260418       1.41678739       2.96856560
H        4.79669873       2.58287245       2.64680027
O        0.50228827       3.01230074      22.63844479
H        0.64555021       3.38074133      21.75018134
H       -0.17496014       2.22526971      22.54179759
O        8.89174176       2.20061784      13.99807713
H        8.72184060       1.29404650      13.68653244
H        9.16251367       2.09047629      14.95424493
O       17.78986665       4.18681918       9.75543532
H       18.26965867       3.37873897      10.03369977
H       17.67001677       4.62445959      10.62337433
O       18.65337566       4.28380733      17.85494893
H       18.52734625       4.44579409      16.90861698
H       19.26296117       4.99995247      18.16147157
O        2.92974374       4.33591641      23.64333794
H        2.03224360       4.04758131      23.43161842
H        3.35196252       4.43357265      22.77036722
O       16.14403913      14.12555675      16.24869414
H       16.25360023      14.39702748      17.19877767
H       16.94434322      14.22597097      15.68642512
O        1.97164295      23.48481830      10.25336900
H        1.38594107      23.37881079       9.51408234
H       26.66314520      24.34510773      10.05133625
O        1.52217427       4.37334780       5.79197908
H        1.86747529       5.30966840       5.58979114
H        0.86501810       4.19901646       5.06498938
O        6.18025297       5.12849261      11.96713908
H        6.75876986       5.97673069      12.18328856
H        5.35724108       5.61477058      11.77089742
O       15.15222381       0.86420120      22.40608945
H       14.16764039       0.71556778      22.44308656
H       15.36232355       1.84733929      22.44314898
O       10.17822778       2.85996173      19.21414172
H        9.72551501       2.17183727      19.75272657
H       10.01878679       2.63632621      18.25114330
O       23.60014495       7.03341487       2.97915745
H       22.97706543       6.23720827       2.95891171
H       23.48820058       7.38833824       3.92151517
O        2.85894174      11.85435088       7.72837585
H        2.16394450      12.42611327       8.12907602
H        3.70698647      12.20340448       8.17383270
O        0.94615639      15.81086396       9.83076326
H        1.76197699      16.33097629       9.93555778
H        0.63291382      15.60767075      10.72722484
O        0.51635267       5.34131285      17.84645018
H        0.46242807       6.34686407      17.77768823
H       23.89492577       5.06219666      17.70750626
O       19.64608514       2.29929981      10.63601640
H       20.08540761       1.60444480      10.01458314
H       20.34972911       2.96493713      10.68257878
O       19.63820940      11.21656953      15.33848894
H       19.54618856      11.28942274      16.34643251
H       19.47442839      12.14553502      15.10119503
O        5.16536286      17.41078573       0.52506208
H        5.33284263      16.53227763       0.10886408
H        4.19172789      17.62024084       0.53295336
O       15.69962225       9.86444173       8.57302994
H       15.39901007       9.83087721       9.53511054
H       15.60410062       8.97071696       8.27650153
O        9.38943862       8.83435489       5.24826830
H       10.01174643       9.40000116       4.74329285
H        9.80112861       8.92596403       6.15258200
O       13.31649740       4.79328514      20.00121760
H       13.06023671       3.88561218      19.72512718
H       13.14820831       4.83959214      21.00145353
O        8.00966050       7.69304008      22.90186795
H        8.72696792       7.35833472      22.27309900
H        7.45691503       6.95241038      23.03430303
O       22.26431062       6.77313358      15.94327598
H       22.23412906       7.65400665      16.43068375
H       21.32596206       6.37747714      15.86433427
O        3.07966862       9.32076671      12.68310046
H        3.54327806       9.08183085      11.87123571
H        3.42337535      10.18523653      12.95880436
O        3.42491794       6.92822832      15.13542644
H        3.20758879       7.66946324      14.46876681
H        3.49950220       6.20575508      14.48240287
O        6.43241291      11.61679648      22.12021093
H        7.45202365      11.65146546      21.88854703
H        6.12892168      10.86560649      21.50312678
O        2.59673074      13.96048151      21.22473950
H        2.47635347      14.68104627      20.53058863
H        1.74574589      13.58134503      21.38936749
O       24.59735780      18.63993680      10.75926058
H        0.48002502      19.69823750      10.65208317
H       24.12366127      18.73971397      11.64498149
O       21.88121466      14.25426959       9.18384532
H       21.44095339      13.34849573       9.31358441
H       22.79895369      13.96832469       9.03301308
O        5.22076526      20.00926004      19.21342357
H        4.95168317      19.17819482      18.72341523
H        4.47449044      20.39981551      19.72241809
O       11.87320638       7.82147155      16.24975920
H       11.50687427       7.28618344      17.01487761
H       11.03633507       8.25698074      15.95977163
O        7.20926726      17.39250336      14.75130817
H        8.15912517      17.55707347      14.90645810
H        7.11702341      16.65382520      15.44467749
O        5.60062586      14.01022311      21.78067707
H        6.00008039      13.13090264      21.72516973
H        4.60737396      13.83643061      21.62353501
O       25.49775648       3.98374577      20.26588476
H        2.16333473       3.76171119      20.40604999
H        1.04119969       4.39143423      19.41207078
O       19.43626346      22.32020814      10.38359152
H       19.66262130      21.36293509      10.05381954
H       19.20637566      22.67142432       9.53155300
O        4.09247818       3.97880664      20.61600210
H        4.12083560       4.90019508      20.27378816
H        4.30042361       3.39610965      19.80296284
O       13.48969705      17.73582770       5.35546209
H       12.69713343      17.04808230       5.16553043
H       12.91214540      18.48250858       5.38764483
O        5.35146769      21.98976719      12.83397039
H        5.45500315      21.07585028      12.41314937
H        5.48405638      21.71811545      13.72740962
O       12.84578082       0.62755087      17.60026867
H       12.09338744       0.33745983      18.15957699
H       13.60565112       0.76837903      18.30474184
O        9.11314410      23.32424911      15.58023461
H        9.71481316      22.54212756      15.75845292
H        8.86543995      23.35871158      14.63928464
O        3.65473432      13.31282252       5.27149950
H        3.58376778      12.71156593       4.46970194
H        3.52337480      12.83889524       6.10456692
O        7.90599459      19.64077201       4.20632624
H        7.55092046      20.08616667       3.41472603
H        7.13986312      19.51441424       4.83482191
O       13.14403451      23.02109187      15.81502631
H       13.82426290      -1.03782390      15.15449763
H       13.20519655      23.70151299      16.55368947
O       20.79370293       5.14133631      24.13843253
H       20.77073439       6.14572159       0.07685146
H       19.86694184       5.08786693      23.78741551
O       12.01075176      10.25822800      22.18898592
H       11.07620573      10.60799360      22.23841477
H       11.97217562       9.26586849      22.37797096
O        4.43384109      20.19575939      -0.45961699
H        3.60462469      19.76913581      -0.03915972
H        4.99609750      19.39454541      -0.63140163
O        9.38152572      15.96786694      23.58816202
H       10.04405695      15.70985076      24.25284521
H        9.54438388      16.93042309      23.39074694
O       11.22432035       6.37099324      18.61488282
H       10.82795472       7.08842108      19.14430949
H       11.98656105       6.05279694      19.23814938
O        4.85375514      19.85029905      15.41115104
H        5.73162823      19.96697410      15.83878556
H        4.99652698      19.65748554      14.48314429
O        2.64132497       9.95524554      15.81917115
H        3.56099697       9.81222188      15.44313832
H        2.80067497       9.55428734      16.70690572
O       13.34395237      14.50561733       3.68119616
H       13.33363226      13.55709597       3.99953413
H       12.50302273      14.87444732       4.19439175
O       11.96092622       9.50467797      10.63285628
H       11.68487052       9.08867741       9.74324989
H       12.50481752       8.77370355      11.03470002
O       22.75684995      11.99182046       1.06843174
H       22.16569750      12.73087920       0.63338058
H       23.60051352      12.41693664       0.82968882
O       10.30541241      15.43543198       2.42349552
H       10.33598474      14.43083937       2.55082452
H        9.60814866      15.57752393       3.06354175
O       12.67219625      18.95120094      11.02825096
H       13.10929590      19.79466983      11.14637229
H       12.75026361      18.72097455      10.10983315
O        2.18061787       3.76507097      16.59622401
H        2.40511458       4.20199186      15.76349481
H        1.56274803       4.38086097      17.00014142
O        5.06617004      12.60159093       8.92135363
H        5.20417903      13.56811115       9.10363982
H        5.93141802      12.30675645       8.47990947
O       22.54531097       3.97865876      17.32704757
H       22.26450010       4.12661606      16.41282960
H       22.40091389       2.98229599      17.43642517
O       17.74142454      13.03422625       5.65180600
H       18.73995964      12.99140291       5.56240574
H       17.46380282      12.18792180       5.17124150
O        6.70109984      21.00535032       8.05335627
H        6.27096539      20.97426074       8.96698831
H        7.15880532      21.85984357       8.01626956
O       12.60077776      12.12841386      11.75105741
H       11.86843741      11.65446485      11.29320813
H       12.75397993      12.91955114      11.17492756
O        8.27967999      18.77243707       8.86533458
H        7.83585005      19.55937220       8.44608217
H        8.40074410      19.11026771       9.75445950
O        3.90556298      15.60931863       9.06259946
H        4.51426140      16.35567790       8.88645495
H        3.28115390      15.64796585       8.34668945
O        7.49654883      13.14282054      12.63692191
H        6.61981855      12.87642495      12.37203210
H        7.81228382      12.70777134      13.47399733
O        8.71032709       1.19038316      21.64750184
H        7.74568947       1.34444695      21.50632909
H        8.93262927       1.94567792      22.28450570
O       12.46277264       6.35756192      14.00729568
H       12.11130224       7.04672897      14.64571756
H       12.03118634       5.47635000      14.15197529
O        1.07439418      13.30607654      18.24835497
H        1.10054716      12.40111545      18.66637409
H        0.37580739      13.89191133      18.72169689
O       18.85191280       7.72517405       9.94453307
H       19.04998945       7.26136168      10.74944478
H       18.67521154       8.66022922      10.25682749
O        2.41187246      21.87767894      17.01117645
H        1.98807286      22.18485925      16.19278570
H        2.29449060      20.90443125      16.86360865
O       20.54153433      14.34753207      18.83425382
H       21.40673815      14.69585792      19.22031786
H       20.01631613      15.17743919      18.63740691
O       15.12989534       5.81177383       0.71392780
H       14.22074202       5.52717369       0.59098529
H       15.29063074       6.43811150      24.28283862
O        9.47862894       5.20814383      12.64348901
H        9.61835843       6.18993160      12.57682261
H        9.03533622       5.20023331      13.50116678
O       22.18923521       4.87537026      21.35053399
H       23.01807828       5.40104129      21.37213198
H       21.90299673       4.65935686      22.29906526
O        8.16737671       3.74834024       3.11219490
H        7.30740573       3.29931370       3.00581990
H        8.83281931       3.19949689       2.64440124
O        1.32810455       0.99729698       1.15804222
H        1.71070748      26.21216543      25.67829592
H        2.13032013       0.45270989      25.70006896
O        1.27119973      16.26481754      16.37779361
H        0.85384320      15.35284764      16.25365587
H        1.57823282      16.26457635      17.37686111
O        3.52917141      19.06268634       8.62241783
H        3.36936910      18.46364537       9.42483611
H        3.80951583      19.96008787       8.88524899
O       11.51843657      21.38466004       3.99160315
H       11.12350785      20.62357528       4.56110255
H       11.40804946      22.19675539       4.59828587
O        6.25358296      23.78102130       5.10475047
H        6.95276699      23.59146298       5.78668422
H        5.86753322      22.89518426       4.88022874
O       17.38193356       7.74610836       5.53136628
H       18.35311531       7.93395924       5.62320779
H       17.23623552       6.79746591       5.18452650
O       14.84683155       4.83864382       7.24762790
H       15.56589355       5.46625303       7.38136949
H       15.32673933       3.97299322       7.06818030
O       10.51221295      19.04671317       4.88512249
H        9.53854971      19.28582653       4.92841702
H       10.62736323      18.95753228       5.88662589
O        5.13143536       8.93386541       2.51054601
H        5.03702727       9.83373705       2.20263566
H        6.00716980       8.74367682       2.83530139
O       10.14558944      21.76470534       0.84067541
H        9.72725182      21.11400994       0.26749223
H       10.79893499      21.13179614       1.34984751
O       24.80957738      23.00448511      12.61387927
H        1.11307583      23.04728745      11.84618970
H       23.92264303      23.16176002      12.13442859
O       10.82003421      16.45663205      19.16026907
H       11.07429060      15.89666739      18.40395346
H       10.14366302      15.84187338      19.58462786
O       13.71629247      15.71099871      15.68439355
H       13.99896338      16.64138094      15.48821630
H       14.62383282      15.28737588      15.80995852
O        6.89280731       7.48772038      13.22407300
H        6.09360875       7.82957980      13.67945383
H        7.36379919       7.06035350      14.00312691
O       12.98642318      11.84782555       4.43794627
H       13.34688314      11.86754532       5.39243761
H       13.81614272      11.54323693       3.88791067
O       19.06851397      14.02856508      15.24732450
H       19.14136061      14.64773546      14.49315660
H       19.86939012      14.19229808      15.82651007
O       16.27071276       7.13520692       7.93181103
H       16.89624365       7.13028691       8.73548463
H       16.76960525       7.40584874       7.15207278